LAMMPS data file for solid-liquid Ge with impurities

1024 atoms
5 atom types

0.0 22.6320 xlo xhi
0.0 22.6320 ylo yhi
0.0 45.2640 zlo zhi

Masses

1 72.63   # Ge
2 10.81   # B
3 26.98   # Al
4 69.72   # Ga
5 30.97   # P

Atoms

1 4 0.0000 0.0000 0.0000
2 1 1.4145 1.4145 1.4145
3 1 2.8290 2.8290 0.0000
4 1 4.2435 4.2435 1.4145
5 1 2.8290 0.0000 2.8290
6 1 1.4145 4.2435 4.2435
7 3 0.0000 2.8290 2.8290
8 1 4.2435 1.4145 4.2435
9 1 0.0000 0.0000 5.6580
10 1 1.4145 1.4145 7.0725
11 1 2.8290 2.8290 5.6580
12 1 4.2435 4.2435 7.0725
13 1 2.8290 0.0000 8.4870
14 1 1.4145 4.2435 9.9015
15 1 0.0000 2.8290 8.4870
16 1 4.2435 1.4145 9.9015
17 1 0.0000 0.0000 11.3160
18 1 1.4145 1.4145 12.7305
19 1 2.8290 2.8290 11.3160
20 1 4.2435 4.2435 12.7305
21 3 2.8290 0.0000 14.1450
22 1 1.4145 4.2435 15.5595
23 1 0.0000 2.8290 14.1450
24 3 4.2435 1.4145 15.5595
25 1 0.0000 0.0000 16.9740
26 1 1.4145 1.4145 18.3885
27 1 2.8290 2.8290 16.9740
28 1 4.2435 4.2435 18.3885
29 1 2.8290 0.0000 19.8030
30 1 1.4145 4.2435 21.2175
31 3 0.0000 2.8290 19.8030
32 4 4.2435 1.4145 21.2175
33 1 0.0000 0.0000 22.6320
34 1 1.4145 1.4145 24.0465
35 1 2.8290 2.8290 22.6320
36 1 4.2435 4.2435 24.0465
37 1 2.8290 0.0000 25.4610
38 1 1.4145 4.2435 26.8755
39 1 0.0000 2.8290 25.4610
40 1 4.2435 1.4145 26.8755
41 1 0.0000 0.0000 28.2900
42 1 1.4145 1.4145 29.7045
43 1 2.8290 2.8290 28.2900
44 1 4.2435 4.2435 29.7045
45 1 2.8290 0.0000 31.1190
46 1 1.4145 4.2435 32.5335
47 1 0.0000 2.8290 31.1190
48 1 4.2435 1.4145 32.5335
49 1 0.0000 0.0000 33.9480
50 1 1.4145 1.4145 35.3625
51 1 2.8290 2.8290 33.9480
52 1 4.2435 4.2435 35.3625
53 1 2.8290 0.0000 36.7770
54 1 1.4145 4.2435 38.1915
55 4 0.0000 2.8290 36.7770
56 1 4.2435 1.4145 38.1915
57 1 0.0000 0.0000 39.6060
58 1 1.4145 1.4145 41.0205
59 1 2.8290 2.8290 39.6060
60 1 4.2435 4.2435 41.0205
61 1 2.8290 0.0000 42.4350
62 1 1.4145 4.2435 43.8495
63 1 0.0000 2.8290 42.4350
64 1 4.2435 1.4145 43.8495
65 1 0.0000 5.6580 0.0000
66 1 1.4145 7.0725 1.4145
67 4 2.8290 8.4870 0.0000
68 1 4.2435 9.9015 1.4145
69 1 2.8290 5.6580 2.8290
70 1 1.4145 9.9015 4.2435
71 1 0.0000 8.4870 2.8290
72 1 4.2435 7.0725 4.2435
73 1 0.0000 5.6580 5.6580
74 1 1.4145 7.0725 7.0725
75 2 2.8290 8.4870 5.6580
76 1 4.2435 9.9015 7.0725
77 4 2.8290 5.6580 8.4870
78 1 1.4145 9.9015 9.9015
79 1 0.0000 8.4870 8.4870
80 1 4.2435 7.0725 9.9015
81 1 0.0000 5.6580 11.3160
82 1 1.4145 7.0725 12.7305
83 1 2.8290 8.4870 11.3160
84 1 4.2435 9.9015 12.7305
85 1 2.8290 5.6580 14.1450
86 1 1.4145 9.9015 15.5595
87 3 0.0000 8.4870 14.1450
88 1 4.2435 7.0725 15.5595
89 1 0.0000 5.6580 16.9740
90 1 1.4145 7.0725 18.3885
91 1 2.8290 8.4870 16.9740
92 1 4.2435 9.9015 18.3885
93 1 2.8290 5.6580 19.8030
94 1 1.4145 9.9015 21.2175
95 1 0.0000 8.4870 19.8030
96 1 4.2435 7.0725 21.2175
97 1 0.0000 5.6580 22.6320
98 1 1.4145 7.0725 24.0465
99 1 2.8290 8.4870 22.6320
100 1 4.2435 9.9015 24.0465
101 1 2.8290 5.6580 25.4610
102 1 1.4145 9.9015 26.8755
103 1 0.0000 8.4870 25.4610
104 1 4.2435 7.0725 26.8755
105 1 0.0000 5.6580 28.2900
106 3 1.4145 7.0725 29.7045
107 1 2.8290 8.4870 28.2900
108 1 4.2435 9.9015 29.7045
109 1 2.8290 5.6580 31.1190
110 1 1.4145 9.9015 32.5335
111 1 0.0000 8.4870 31.1190
112 1 4.2435 7.0725 32.5335
113 1 0.0000 5.6580 33.9480
114 1 1.4145 7.0725 35.3625
115 1 2.8290 8.4870 33.9480
116 1 4.2435 9.9015 35.3625
117 1 2.8290 5.6580 36.7770
118 1 1.4145 9.9015 38.1915
119 1 0.0000 8.4870 36.7770
120 1 4.2435 7.0725 38.1915
121 1 0.0000 5.6580 39.6060
122 4 1.4145 7.0725 41.0205
123 1 2.8290 8.4870 39.6060
124 1 4.2435 9.9015 41.0205
125 1 2.8290 5.6580 42.4350
126 1 1.4145 9.9015 43.8495
127 1 0.0000 8.4870 42.4350
128 1 4.2435 7.0725 43.8495
129 1 0.0000 11.3160 0.0000
130 1 1.4145 12.7305 1.4145
131 1 2.8290 14.1450 0.0000
132 1 4.2435 15.5595 1.4145
133 1 2.8290 11.3160 2.8290
134 1 1.4145 15.5595 4.2435
135 1 0.0000 14.1450 2.8290
136 1 4.2435 12.7305 4.2435
137 1 0.0000 11.3160 5.6580
138 1 1.4145 12.7305 7.0725
139 1 2.8290 14.1450 5.6580
140 4 4.2435 15.5595 7.0725
141 1 2.8290 11.3160 8.4870
142 1 1.4145 15.5595 9.9015
143 1 0.0000 14.1450 8.4870
144 1 4.2435 12.7305 9.9015
145 1 0.0000 11.3160 11.3160
146 1 1.4145 12.7305 12.7305
147 1 2.8290 14.1450 11.3160
148 1 4.2435 15.5595 12.7305
149 1 2.8290 11.3160 14.1450
150 1 1.4145 15.5595 15.5595
151 1 0.0000 14.1450 14.1450
152 1 4.2435 12.7305 15.5595
153 1 0.0000 11.3160 16.9740
154 1 1.4145 12.7305 18.3885
155 1 2.8290 14.1450 16.9740
156 1 4.2435 15.5595 18.3885
157 1 2.8290 11.3160 19.8030
158 1 1.4145 15.5595 21.2175
159 1 0.0000 14.1450 19.8030
160 1 4.2435 12.7305 21.2175
161 1 0.0000 11.3160 22.6320
162 1 1.4145 12.7305 24.0465
163 1 2.8290 14.1450 22.6320
164 1 4.2435 15.5595 24.0465
165 1 2.8290 11.3160 25.4610
166 1 1.4145 15.5595 26.8755
167 1 0.0000 14.1450 25.4610
168 5 4.2435 12.7305 26.8755
169 1 0.0000 11.3160 28.2900
170 2 1.4145 12.7305 29.7045
171 1 2.8290 14.1450 28.2900
172 1 4.2435 15.5595 29.7045
173 1 2.8290 11.3160 31.1190
174 1 1.4145 15.5595 32.5335
175 1 0.0000 14.1450 31.1190
176 1 4.2435 12.7305 32.5335
177 1 0.0000 11.3160 33.9480
178 1 1.4145 12.7305 35.3625
179 2 2.8290 14.1450 33.9480
180 1 4.2435 15.5595 35.3625
181 1 2.8290 11.3160 36.7770
182 5 1.4145 15.5595 38.1915
183 1 0.0000 14.1450 36.7770
184 1 4.2435 12.7305 38.1915
185 1 0.0000 11.3160 39.6060
186 1 1.4145 12.7305 41.0205
187 1 2.8290 14.1450 39.6060
188 1 4.2435 15.5595 41.0205
189 1 2.8290 11.3160 42.4350
190 1 1.4145 15.5595 43.8495
191 1 0.0000 14.1450 42.4350
192 1 4.2435 12.7305 43.8495
193 1 0.0000 16.9740 0.0000
194 1 1.4145 18.3885 1.4145
195 1 2.8290 19.8030 0.0000
196 1 4.2435 21.2175 1.4145
197 1 2.8290 16.9740 2.8290
198 1 1.4145 21.2175 4.2435
199 1 0.0000 19.8030 2.8290
200 1 4.2435 18.3885 4.2435
201 1 0.0000 16.9740 5.6580
202 1 1.4145 18.3885 7.0725
203 1 2.8290 19.8030 5.6580
204 1 4.2435 21.2175 7.0725
205 1 2.8290 16.9740 8.4870
206 1 1.4145 21.2175 9.9015
207 1 0.0000 19.8030 8.4870
208 1 4.2435 18.3885 9.9015
209 1 0.0000 16.9740 11.3160
210 1 1.4145 18.3885 12.7305
211 4 2.8290 19.8030 11.3160
212 1 4.2435 21.2175 12.7305
213 1 2.8290 16.9740 14.1450
214 1 1.4145 21.2175 15.5595
215 4 0.0000 19.8030 14.1450
216 1 4.2435 18.3885 15.5595
217 1 0.0000 16.9740 16.9740
218 1 1.4145 18.3885 18.3885
219 1 2.8290 19.8030 16.9740
220 1 4.2435 21.2175 18.3885
221 5 2.8290 16.9740 19.8030
222 1 1.4145 21.2175 21.2175
223 1 0.0000 19.8030 19.8030
224 1 4.2435 18.3885 21.2175
225 1 0.0000 16.9740 22.6320
226 1 1.4145 18.3885 24.0465
227 4 2.8290 19.8030 22.6320
228 1 4.2435 21.2175 24.0465
229 1 2.8290 16.9740 25.4610
230 1 1.4145 21.2175 26.8755
231 5 0.0000 19.8030 25.4610
232 1 4.2435 18.3885 26.8755
233 1 0.0000 16.9740 28.2900
234 1 1.4145 18.3885 29.7045
235 1 2.8290 19.8030 28.2900
236 1 4.2435 21.2175 29.7045
237 1 2.8290 16.9740 31.1190
238 1 1.4145 21.2175 32.5335
239 1 0.0000 19.8030 31.1190
240 1 4.2435 18.3885 32.5335
241 1 0.0000 16.9740 33.9480
242 1 1.4145 18.3885 35.3625
243 1 2.8290 19.8030 33.9480
244 1 4.2435 21.2175 35.3625
245 5 2.8290 16.9740 36.7770
246 1 1.4145 21.2175 38.1915
247 1 0.0000 19.8030 36.7770
248 1 4.2435 18.3885 38.1915
249 1 0.0000 16.9740 39.6060
250 1 1.4145 18.3885 41.0205
251 1 2.8290 19.8030 39.6060
252 1 4.2435 21.2175 41.0205
253 1 2.8290 16.9740 42.4350
254 1 1.4145 21.2175 43.8495
255 1 0.0000 19.8030 42.4350
256 1 4.2435 18.3885 43.8495
257 1 5.6580 0.0000 0.0000
258 1 7.0725 1.4145 1.4145
259 3 8.4870 2.8290 0.0000
260 1 9.9015 4.2435 1.4145
261 1 8.4870 0.0000 2.8290
262 1 7.0725 4.2435 4.2435
263 1 5.6580 2.8290 2.8290
264 1 9.9015 1.4145 4.2435
265 1 5.6580 0.0000 5.6580
266 1 7.0725 1.4145 7.0725
267 1 8.4870 2.8290 5.6580
268 1 9.9015 4.2435 7.0725
269 1 8.4870 0.0000 8.4870
270 1 7.0725 4.2435 9.9015
271 1 5.6580 2.8290 8.4870
272 1 9.9015 1.4145 9.9015
273 5 5.6580 0.0000 11.3160
274 1 7.0725 1.4145 12.7305
275 1 8.4870 2.8290 11.3160
276 1 9.9015 4.2435 12.7305
277 1 8.4870 0.0000 14.1450
278 5 7.0725 4.2435 15.5595
279 1 5.6580 2.8290 14.1450
280 1 9.9015 1.4145 15.5595
281 1 5.6580 0.0000 16.9740
282 1 7.0725 1.4145 18.3885
283 1 8.4870 2.8290 16.9740
284 1 9.9015 4.2435 18.3885
285 1 8.4870 0.0000 19.8030
286 1 7.0725 4.2435 21.2175
287 1 5.6580 2.8290 19.8030
288 1 9.9015 1.4145 21.2175
289 1 5.6580 0.0000 22.6320
290 1 7.0725 1.4145 24.0465
291 1 8.4870 2.8290 22.6320
292 1 9.9015 4.2435 24.0465
293 1 8.4870 0.0000 25.4610
294 1 7.0725 4.2435 26.8755
295 1 5.6580 2.8290 25.4610
296 1 9.9015 1.4145 26.8755
297 1 5.6580 0.0000 28.2900
298 1 7.0725 1.4145 29.7045
299 1 8.4870 2.8290 28.2900
300 1 9.9015 4.2435 29.7045
301 1 8.4870 0.0000 31.1190
302 1 7.0725 4.2435 32.5335
303 1 5.6580 2.8290 31.1190
304 1 9.9015 1.4145 32.5335
305 1 5.6580 0.0000 33.9480
306 4 7.0725 1.4145 35.3625
307 1 8.4870 2.8290 33.9480
308 1 9.9015 4.2435 35.3625
309 1 8.4870 0.0000 36.7770
310 1 7.0725 4.2435 38.1915
311 1 5.6580 2.8290 36.7770
312 1 9.9015 1.4145 38.1915
313 1 5.6580 0.0000 39.6060
314 1 7.0725 1.4145 41.0205
315 1 8.4870 2.8290 39.6060
316 1 9.9015 4.2435 41.0205
317 1 8.4870 0.0000 42.4350
318 1 7.0725 4.2435 43.8495
319 1 5.6580 2.8290 42.4350
320 1 9.9015 1.4145 43.8495
321 1 5.6580 5.6580 0.0000
322 1 7.0725 7.0725 1.4145
323 1 8.4870 8.4870 0.0000
324 1 9.9015 9.9015 1.4145
325 1 8.4870 5.6580 2.8290
326 3 7.0725 9.9015 4.2435
327 1 5.6580 8.4870 2.8290
328 4 9.9015 7.0725 4.2435
329 1 5.6580 5.6580 5.6580
330 1 7.0725 7.0725 7.0725
331 1 8.4870 8.4870 5.6580
332 1 9.9015 9.9015 7.0725
333 1 8.4870 5.6580 8.4870
334 1 7.0725 9.9015 9.9015
335 1 5.6580 8.4870 8.4870
336 1 9.9015 7.0725 9.9015
337 4 5.6580 5.6580 11.3160
338 1 7.0725 7.0725 12.7305
339 1 8.4870 8.4870 11.3160
340 1 9.9015 9.9015 12.7305
341 1 8.4870 5.6580 14.1450
342 1 7.0725 9.9015 15.5595
343 1 5.6580 8.4870 14.1450
344 1 9.9015 7.0725 15.5595
345 1 5.6580 5.6580 16.9740
346 4 7.0725 7.0725 18.3885
347 1 8.4870 8.4870 16.9740
348 1 9.9015 9.9015 18.3885
349 1 8.4870 5.6580 19.8030
350 1 7.0725 9.9015 21.2175
351 1 5.6580 8.4870 19.8030
352 1 9.9015 7.0725 21.2175
353 1 5.6580 5.6580 22.6320
354 1 7.0725 7.0725 24.0465
355 1 8.4870 8.4870 22.6320
356 1 9.9015 9.9015 24.0465
357 3 8.4870 5.6580 25.4610
358 1 7.0725 9.9015 26.8755
359 1 5.6580 8.4870 25.4610
360 1 9.9015 7.0725 26.8755
361 1 5.6580 5.6580 28.2900
362 1 7.0725 7.0725 29.7045
363 1 8.4870 8.4870 28.2900
364 1 9.9015 9.9015 29.7045
365 1 8.4870 5.6580 31.1190
366 1 7.0725 9.9015 32.5335
367 1 5.6580 8.4870 31.1190
368 1 9.9015 7.0725 32.5335
369 4 5.6580 5.6580 33.9480
370 1 7.0725 7.0725 35.3625
371 1 8.4870 8.4870 33.9480
372 1 9.9015 9.9015 35.3625
373 1 8.4870 5.6580 36.7770
374 4 7.0725 9.9015 38.1915
375 1 5.6580 8.4870 36.7770
376 1 9.9015 7.0725 38.1915
377 1 5.6580 5.6580 39.6060
378 1 7.0725 7.0725 41.0205
379 1 8.4870 8.4870 39.6060
380 1 9.9015 9.9015 41.0205
381 2 8.4870 5.6580 42.4350
382 1 7.0725 9.9015 43.8495
383 1 5.6580 8.4870 42.4350
384 5 9.9015 7.0725 43.8495
385 1 5.6580 11.3160 0.0000
386 1 7.0725 12.7305 1.4145
387 1 8.4870 14.1450 0.0000
388 1 9.9015 15.5595 1.4145
389 1 8.4870 11.3160 2.8290
390 1 7.0725 15.5595 4.2435
391 1 5.6580 14.1450 2.8290
392 1 9.9015 12.7305 4.2435
393 1 5.6580 11.3160 5.6580
394 1 7.0725 12.7305 7.0725
395 1 8.4870 14.1450 5.6580
396 1 9.9015 15.5595 7.0725
397 1 8.4870 11.3160 8.4870
398 4 7.0725 15.5595 9.9015
399 1 5.6580 14.1450 8.4870
400 1 9.9015 12.7305 9.9015
401 1 5.6580 11.3160 11.3160
402 1 7.0725 12.7305 12.7305
403 1 8.4870 14.1450 11.3160
404 3 9.9015 15.5595 12.7305
405 1 8.4870 11.3160 14.1450
406 1 7.0725 15.5595 15.5595
407 1 5.6580 14.1450 14.1450
408 1 9.9015 12.7305 15.5595
409 1 5.6580 11.3160 16.9740
410 1 7.0725 12.7305 18.3885
411 2 8.4870 14.1450 16.9740
412 1 9.9015 15.5595 18.3885
413 1 8.4870 11.3160 19.8030
414 1 7.0725 15.5595 21.2175
415 1 5.6580 14.1450 19.8030
416 1 9.9015 12.7305 21.2175
417 2 5.6580 11.3160 22.6320
418 1 7.0725 12.7305 24.0465
419 1 8.4870 14.1450 22.6320
420 1 9.9015 15.5595 24.0465
421 1 8.4870 11.3160 25.4610
422 1 7.0725 15.5595 26.8755
423 1 5.6580 14.1450 25.4610
424 1 9.9015 12.7305 26.8755
425 1 5.6580 11.3160 28.2900
426 1 7.0725 12.7305 29.7045
427 1 8.4870 14.1450 28.2900
428 1 9.9015 15.5595 29.7045
429 1 8.4870 11.3160 31.1190
430 1 7.0725 15.5595 32.5335
431 1 5.6580 14.1450 31.1190
432 1 9.9015 12.7305 32.5335
433 1 5.6580 11.3160 33.9480
434 1 7.0725 12.7305 35.3625
435 1 8.4870 14.1450 33.9480
436 1 9.9015 15.5595 35.3625
437 1 8.4870 11.3160 36.7770
438 1 7.0725 15.5595 38.1915
439 1 5.6580 14.1450 36.7770
440 1 9.9015 12.7305 38.1915
441 1 5.6580 11.3160 39.6060
442 1 7.0725 12.7305 41.0205
443 1 8.4870 14.1450 39.6060
444 1 9.9015 15.5595 41.0205
445 1 8.4870 11.3160 42.4350
446 1 7.0725 15.5595 43.8495
447 1 5.6580 14.1450 42.4350
448 4 9.9015 12.7305 43.8495
449 1 5.6580 16.9740 0.0000
450 1 7.0725 18.3885 1.4145
451 1 8.4870 19.8030 0.0000
452 1 9.9015 21.2175 1.4145
453 1 8.4870 16.9740 2.8290
454 1 7.0725 21.2175 4.2435
455 1 5.6580 19.8030 2.8290
456 1 9.9015 18.3885 4.2435
457 1 5.6580 16.9740 5.6580
458 1 7.0725 18.3885 7.0725
459 4 8.4870 19.8030 5.6580
460 4 9.9015 21.2175 7.0725
461 1 8.4870 16.9740 8.4870
462 1 7.0725 21.2175 9.9015
463 1 5.6580 19.8030 8.4870
464 3 9.9015 18.3885 9.9015
465 1 5.6580 16.9740 11.3160
466 1 7.0725 18.3885 12.7305
467 1 8.4870 19.8030 11.3160
468 2 9.9015 21.2175 12.7305
469 4 8.4870 16.9740 14.1450
470 1 7.0725 21.2175 15.5595
471 1 5.6580 19.8030 14.1450
472 1 9.9015 18.3885 15.5595
473 1 5.6580 16.9740 16.9740
474 1 7.0725 18.3885 18.3885
475 1 8.4870 19.8030 16.9740
476 1 9.9015 21.2175 18.3885
477 1 8.4870 16.9740 19.8030
478 1 7.0725 21.2175 21.2175
479 5 5.6580 19.8030 19.8030
480 1 9.9015 18.3885 21.2175
481 1 5.6580 16.9740 22.6320
482 1 7.0725 18.3885 24.0465
483 1 8.4870 19.8030 22.6320
484 1 9.9015 21.2175 24.0465
485 1 8.4870 16.9740 25.4610
486 1 7.0725 21.2175 26.8755
487 1 5.6580 19.8030 25.4610
488 1 9.9015 18.3885 26.8755
489 1 5.6580 16.9740 28.2900
490 1 7.0725 18.3885 29.7045
491 1 8.4870 19.8030 28.2900
492 1 9.9015 21.2175 29.7045
493 2 8.4870 16.9740 31.1190
494 1 7.0725 21.2175 32.5335
495 1 5.6580 19.8030 31.1190
496 1 9.9015 18.3885 32.5335
497 1 5.6580 16.9740 33.9480
498 1 7.0725 18.3885 35.3625
499 1 8.4870 19.8030 33.9480
500 1 9.9015 21.2175 35.3625
501 1 8.4870 16.9740 36.7770
502 1 7.0725 21.2175 38.1915
503 1 5.6580 19.8030 36.7770
504 1 9.9015 18.3885 38.1915
505 1 5.6580 16.9740 39.6060
506 1 7.0725 18.3885 41.0205
507 1 8.4870 19.8030 39.6060
508 1 9.9015 21.2175 41.0205
509 1 8.4870 16.9740 42.4350
510 1 7.0725 21.2175 43.8495
511 1 5.6580 19.8030 42.4350
512 1 9.9015 18.3885 43.8495
513 1 11.3160 0.0000 0.0000
514 1 12.7305 1.4145 1.4145
515 1 14.1450 2.8290 0.0000
516 1 15.5595 4.2435 1.4145
517 1 14.1450 0.0000 2.8290
518 1 12.7305 4.2435 4.2435
519 1 11.3160 2.8290 2.8290
520 1 15.5595 1.4145 4.2435
521 1 11.3160 0.0000 5.6580
522 4 12.7305 1.4145 7.0725
523 1 14.1450 2.8290 5.6580
524 1 15.5595 4.2435 7.0725
525 1 14.1450 0.0000 8.4870
526 1 12.7305 4.2435 9.9015
527 1 11.3160 2.8290 8.4870
528 3 15.5595 1.4145 9.9015
529 1 11.3160 0.0000 11.3160
530 1 12.7305 1.4145 12.7305
531 1 14.1450 2.8290 11.3160
532 1 15.5595 4.2435 12.7305
533 1 14.1450 0.0000 14.1450
534 1 12.7305 4.2435 15.5595
535 1 11.3160 2.8290 14.1450
536 5 15.5595 1.4145 15.5595
537 1 11.3160 0.0000 16.9740
538 2 12.7305 1.4145 18.3885
539 1 14.1450 2.8290 16.9740
540 1 15.5595 4.2435 18.3885
541 1 14.1450 0.0000 19.8030
542 1 12.7305 4.2435 21.2175
543 1 11.3160 2.8290 19.8030
544 1 15.5595 1.4145 21.2175
545 1 11.3160 0.0000 22.6320
546 1 12.7305 1.4145 24.0465
547 1 14.1450 2.8290 22.6320
548 3 15.5595 4.2435 24.0465
549 1 14.1450 0.0000 25.4610
550 1 12.7305 4.2435 26.8755
551 1 11.3160 2.8290 25.4610
552 1 15.5595 1.4145 26.8755
553 1 11.3160 0.0000 28.2900
554 1 12.7305 1.4145 29.7045
555 1 14.1450 2.8290 28.2900
556 1 15.5595 4.2435 29.7045
557 1 14.1450 0.0000 31.1190
558 3 12.7305 4.2435 32.5335
559 1 11.3160 2.8290 31.1190
560 1 15.5595 1.4145 32.5335
561 1 11.3160 0.0000 33.9480
562 1 12.7305 1.4145 35.3625
563 4 14.1450 2.8290 33.9480
564 1 15.5595 4.2435 35.3625
565 1 14.1450 0.0000 36.7770
566 1 12.7305 4.2435 38.1915
567 1 11.3160 2.8290 36.7770
568 1 15.5595 1.4145 38.1915
569 1 11.3160 0.0000 39.6060
570 1 12.7305 1.4145 41.0205
571 5 14.1450 2.8290 39.6060
572 1 15.5595 4.2435 41.0205
573 1 14.1450 0.0000 42.4350
574 1 12.7305 4.2435 43.8495
575 3 11.3160 2.8290 42.4350
576 5 15.5595 1.4145 43.8495
577 1 11.3160 5.6580 0.0000
578 1 12.7305 7.0725 1.4145
579 5 14.1450 8.4870 0.0000
580 1 15.5595 9.9015 1.4145
581 1 14.1450 5.6580 2.8290
582 1 12.7305 9.9015 4.2435
583 1 11.3160 8.4870 2.8290
584 1 15.5595 7.0725 4.2435
585 1 11.3160 5.6580 5.6580
586 3 12.7305 7.0725 7.0725
587 1 14.1450 8.4870 5.6580
588 1 15.5595 9.9015 7.0725
589 1 14.1450 5.6580 8.4870
590 1 12.7305 9.9015 9.9015
591 1 11.3160 8.4870 8.4870
592 1 15.5595 7.0725 9.9015
593 1 11.3160 5.6580 11.3160
594 3 12.7305 7.0725 12.7305
595 1 14.1450 8.4870 11.3160
596 1 15.5595 9.9015 12.7305
597 5 14.1450 5.6580 14.1450
598 1 12.7305 9.9015 15.5595
599 1 11.3160 8.4870 14.1450
600 1 15.5595 7.0725 15.5595
601 1 11.3160 5.6580 16.9740
602 3 12.7305 7.0725 18.3885
603 1 14.1450 8.4870 16.9740
604 1 15.5595 9.9015 18.3885
605 2 14.1450 5.6580 19.8030
606 1 12.7305 9.9015 21.2175
607 1 11.3160 8.4870 19.8030
608 1 15.5595 7.0725 21.2175
609 1 11.3160 5.6580 22.6320
610 1 12.7305 7.0725 24.0465
611 1 14.1450 8.4870 22.6320
612 1 15.5595 9.9015 24.0465
613 1 14.1450 5.6580 25.4610
614 1 12.7305 9.9015 26.8755
615 1 11.3160 8.4870 25.4610
616 1 15.5595 7.0725 26.8755
617 1 11.3160 5.6580 28.2900
618 1 12.7305 7.0725 29.7045
619 1 14.1450 8.4870 28.2900
620 4 15.5595 9.9015 29.7045
621 1 14.1450 5.6580 31.1190
622 1 12.7305 9.9015 32.5335
623 1 11.3160 8.4870 31.1190
624 1 15.5595 7.0725 32.5335
625 1 11.3160 5.6580 33.9480
626 1 12.7305 7.0725 35.3625
627 1 14.1450 8.4870 33.9480
628 1 15.5595 9.9015 35.3625
629 5 14.1450 5.6580 36.7770
630 1 12.7305 9.9015 38.1915
631 1 11.3160 8.4870 36.7770
632 1 15.5595 7.0725 38.1915
633 1 11.3160 5.6580 39.6060
634 1 12.7305 7.0725 41.0205
635 1 14.1450 8.4870 39.6060
636 1 15.5595 9.9015 41.0205
637 1 14.1450 5.6580 42.4350
638 1 12.7305 9.9015 43.8495
639 1 11.3160 8.4870 42.4350
640 1 15.5595 7.0725 43.8495
641 1 11.3160 11.3160 0.0000
642 1 12.7305 12.7305 1.4145
643 1 14.1450 14.1450 0.0000
644 1 15.5595 15.5595 1.4145
645 1 14.1450 11.3160 2.8290
646 1 12.7305 15.5595 4.2435
647 1 11.3160 14.1450 2.8290
648 1 15.5595 12.7305 4.2435
649 1 11.3160 11.3160 5.6580
650 1 12.7305 12.7305 7.0725
651 1 14.1450 14.1450 5.6580
652 1 15.5595 15.5595 7.0725
653 1 14.1450 11.3160 8.4870
654 1 12.7305 15.5595 9.9015
655 1 11.3160 14.1450 8.4870
656 1 15.5595 12.7305 9.9015
657 1 11.3160 11.3160 11.3160
658 1 12.7305 12.7305 12.7305
659 1 14.1450 14.1450 11.3160
660 1 15.5595 15.5595 12.7305
661 1 14.1450 11.3160 14.1450
662 1 12.7305 15.5595 15.5595
663 1 11.3160 14.1450 14.1450
664 1 15.5595 12.7305 15.5595
665 1 11.3160 11.3160 16.9740
666 5 12.7305 12.7305 18.3885
667 1 14.1450 14.1450 16.9740
668 1 15.5595 15.5595 18.3885
669 1 14.1450 11.3160 19.8030
670 1 12.7305 15.5595 21.2175
671 1 11.3160 14.1450 19.8030
672 1 15.5595 12.7305 21.2175
673 1 11.3160 11.3160 22.6320
674 1 12.7305 12.7305 24.0465
675 1 14.1450 14.1450 22.6320
676 1 15.5595 15.5595 24.0465
677 1 14.1450 11.3160 25.4610
678 1 12.7305 15.5595 26.8755
679 1 11.3160 14.1450 25.4610
680 1 15.5595 12.7305 26.8755
681 1 11.3160 11.3160 28.2900
682 1 12.7305 12.7305 29.7045
683 1 14.1450 14.1450 28.2900
684 1 15.5595 15.5595 29.7045
685 1 14.1450 11.3160 31.1190
686 1 12.7305 15.5595 32.5335
687 1 11.3160 14.1450 31.1190
688 1 15.5595 12.7305 32.5335
689 1 11.3160 11.3160 33.9480
690 1 12.7305 12.7305 35.3625
691 1 14.1450 14.1450 33.9480
692 1 15.5595 15.5595 35.3625
693 1 14.1450 11.3160 36.7770
694 1 12.7305 15.5595 38.1915
695 1 11.3160 14.1450 36.7770
696 1 15.5595 12.7305 38.1915
697 1 11.3160 11.3160 39.6060
698 5 12.7305 12.7305 41.0205
699 1 14.1450 14.1450 39.6060
700 1 15.5595 15.5595 41.0205
701 1 14.1450 11.3160 42.4350
702 1 12.7305 15.5595 43.8495
703 1 11.3160 14.1450 42.4350
704 1 15.5595 12.7305 43.8495
705 1 11.3160 16.9740 0.0000
706 1 12.7305 18.3885 1.4145
707 1 14.1450 19.8030 0.0000
708 1 15.5595 21.2175 1.4145
709 1 14.1450 16.9740 2.8290
710 1 12.7305 21.2175 4.2435
711 1 11.3160 19.8030 2.8290
712 4 15.5595 18.3885 4.2435
713 1 11.3160 16.9740 5.6580
714 1 12.7305 18.3885 7.0725
715 1 14.1450 19.8030 5.6580
716 1 15.5595 21.2175 7.0725
717 1 14.1450 16.9740 8.4870
718 1 12.7305 21.2175 9.9015
719 3 11.3160 19.8030 8.4870
720 1 15.5595 18.3885 9.9015
721 1 11.3160 16.9740 11.3160
722 1 12.7305 18.3885 12.7305
723 1 14.1450 19.8030 11.3160
724 1 15.5595 21.2175 12.7305
725 1 14.1450 16.9740 14.1450
726 1 12.7305 21.2175 15.5595
727 1 11.3160 19.8030 14.1450
728 1 15.5595 18.3885 15.5595
729 1 11.3160 16.9740 16.9740
730 1 12.7305 18.3885 18.3885
731 1 14.1450 19.8030 16.9740
732 1 15.5595 21.2175 18.3885
733 1 14.1450 16.9740 19.8030
734 1 12.7305 21.2175 21.2175
735 1 11.3160 19.8030 19.8030
736 1 15.5595 18.3885 21.2175
737 1 11.3160 16.9740 22.6320
738 1 12.7305 18.3885 24.0465
739 1 14.1450 19.8030 22.6320
740 1 15.5595 21.2175 24.0465
741 1 14.1450 16.9740 25.4610
742 1 12.7305 21.2175 26.8755
743 1 11.3160 19.8030 25.4610
744 5 15.5595 18.3885 26.8755
745 5 11.3160 16.9740 28.2900
746 1 12.7305 18.3885 29.7045
747 1 14.1450 19.8030 28.2900
748 1 15.5595 21.2175 29.7045
749 1 14.1450 16.9740 31.1190
750 1 12.7305 21.2175 32.5335
751 1 11.3160 19.8030 31.1190
752 1 15.5595 18.3885 32.5335
753 1 11.3160 16.9740 33.9480
754 1 12.7305 18.3885 35.3625
755 1 14.1450 19.8030 33.9480
756 4 15.5595 21.2175 35.3625
757 1 14.1450 16.9740 36.7770
758 1 12.7305 21.2175 38.1915
759 1 11.3160 19.8030 36.7770
760 1 15.5595 18.3885 38.1915
761 1 11.3160 16.9740 39.6060
762 1 12.7305 18.3885 41.0205
763 1 14.1450 19.8030 39.6060
764 1 15.5595 21.2175 41.0205
765 1 14.1450 16.9740 42.4350
766 1 12.7305 21.2175 43.8495
767 1 11.3160 19.8030 42.4350
768 1 15.5595 18.3885 43.8495
769 1 16.9740 0.0000 0.0000
770 1 18.3885 1.4145 1.4145
771 1 19.8030 2.8290 0.0000
772 1 21.2175 4.2435 1.4145
773 1 19.8030 0.0000 2.8290
774 1 18.3885 4.2435 4.2435
775 1 16.9740 2.8290 2.8290
776 1 21.2175 1.4145 4.2435
777 1 16.9740 0.0000 5.6580
778 3 18.3885 1.4145 7.0725
779 1 19.8030 2.8290 5.6580
780 1 21.2175 4.2435 7.0725
781 1 19.8030 0.0000 8.4870
782 1 18.3885 4.2435 9.9015
783 1 16.9740 2.8290 8.4870
784 1 21.2175 1.4145 9.9015
785 1 16.9740 0.0000 11.3160
786 1 18.3885 1.4145 12.7305
787 1 19.8030 2.8290 11.3160
788 4 21.2175 4.2435 12.7305
789 1 19.8030 0.0000 14.1450
790 1 18.3885 4.2435 15.5595
791 1 16.9740 2.8290 14.1450
792 1 21.2175 1.4145 15.5595
793 4 16.9740 0.0000 16.9740
794 1 18.3885 1.4145 18.3885
795 1 19.8030 2.8290 16.9740
796 1 21.2175 4.2435 18.3885
797 1 19.8030 0.0000 19.8030
798 1 18.3885 4.2435 21.2175
799 1 16.9740 2.8290 19.8030
800 1 21.2175 1.4145 21.2175
801 5 16.9740 0.0000 22.6320
802 1 18.3885 1.4145 24.0465
803 1 19.8030 2.8290 22.6320
804 1 21.2175 4.2435 24.0465
805 3 19.8030 0.0000 25.4610
806 1 18.3885 4.2435 26.8755
807 1 16.9740 2.8290 25.4610
808 1 21.2175 1.4145 26.8755
809 1 16.9740 0.0000 28.2900
810 1 18.3885 1.4145 29.7045
811 2 19.8030 2.8290 28.2900
812 1 21.2175 4.2435 29.7045
813 1 19.8030 0.0000 31.1190
814 1 18.3885 4.2435 32.5335
815 1 16.9740 2.8290 31.1190
816 1 21.2175 1.4145 32.5335
817 1 16.9740 0.0000 33.9480
818 4 18.3885 1.4145 35.3625
819 1 19.8030 2.8290 33.9480
820 1 21.2175 4.2435 35.3625
821 1 19.8030 0.0000 36.7770
822 1 18.3885 4.2435 38.1915
823 1 16.9740 2.8290 36.7770
824 1 21.2175 1.4145 38.1915
825 1 16.9740 0.0000 39.6060
826 1 18.3885 1.4145 41.0205
827 1 19.8030 2.8290 39.6060
828 1 21.2175 4.2435 41.0205
829 1 19.8030 0.0000 42.4350
830 1 18.3885 4.2435 43.8495
831 1 16.9740 2.8290 42.4350
832 1 21.2175 1.4145 43.8495
833 1 16.9740 5.6580 0.0000
834 1 18.3885 7.0725 1.4145
835 1 19.8030 8.4870 0.0000
836 1 21.2175 9.9015 1.4145
837 1 19.8030 5.6580 2.8290
838 1 18.3885 9.9015 4.2435
839 1 16.9740 8.4870 2.8290
840 1 21.2175 7.0725 4.2435
841 5 16.9740 5.6580 5.6580
842 4 18.3885 7.0725 7.0725
843 1 19.8030 8.4870 5.6580
844 1 21.2175 9.9015 7.0725
845 1 19.8030 5.6580 8.4870
846 1 18.3885 9.9015 9.9015
847 1 16.9740 8.4870 8.4870
848 1 21.2175 7.0725 9.9015
849 1 16.9740 5.6580 11.3160
850 1 18.3885 7.0725 12.7305
851 1 19.8030 8.4870 11.3160
852 1 21.2175 9.9015 12.7305
853 1 19.8030 5.6580 14.1450
854 1 18.3885 9.9015 15.5595
855 1 16.9740 8.4870 14.1450
856 1 21.2175 7.0725 15.5595
857 1 16.9740 5.6580 16.9740
858 1 18.3885 7.0725 18.3885
859 1 19.8030 8.4870 16.9740
860 1 21.2175 9.9015 18.3885
861 1 19.8030 5.6580 19.8030
862 1 18.3885 9.9015 21.2175
863 1 16.9740 8.4870 19.8030
864 1 21.2175 7.0725 21.2175
865 1 16.9740 5.6580 22.6320
866 1 18.3885 7.0725 24.0465
867 1 19.8030 8.4870 22.6320
868 1 21.2175 9.9015 24.0465
869 1 19.8030 5.6580 25.4610
870 1 18.3885 9.9015 26.8755
871 2 16.9740 8.4870 25.4610
872 4 21.2175 7.0725 26.8755
873 1 16.9740 5.6580 28.2900
874 1 18.3885 7.0725 29.7045
875 1 19.8030 8.4870 28.2900
876 1 21.2175 9.9015 29.7045
877 1 19.8030 5.6580 31.1190
878 1 18.3885 9.9015 32.5335
879 1 16.9740 8.4870 31.1190
880 3 21.2175 7.0725 32.5335
881 1 16.9740 5.6580 33.9480
882 1 18.3885 7.0725 35.3625
883 1 19.8030 8.4870 33.9480
884 1 21.2175 9.9015 35.3625
885 1 19.8030 5.6580 36.7770
886 1 18.3885 9.9015 38.1915
887 1 16.9740 8.4870 36.7770
888 1 21.2175 7.0725 38.1915
889 1 16.9740 5.6580 39.6060
890 1 18.3885 7.0725 41.0205
891 1 19.8030 8.4870 39.6060
892 1 21.2175 9.9015 41.0205
893 2 19.8030 5.6580 42.4350
894 1 18.3885 9.9015 43.8495
895 1 16.9740 8.4870 42.4350
896 1 21.2175 7.0725 43.8495
897 1 16.9740 11.3160 0.0000
898 1 18.3885 12.7305 1.4145
899 1 19.8030 14.1450 0.0000
900 4 21.2175 15.5595 1.4145
901 1 19.8030 11.3160 2.8290
902 1 18.3885 15.5595 4.2435
903 1 16.9740 14.1450 2.8290
904 1 21.2175 12.7305 4.2435
905 2 16.9740 11.3160 5.6580
906 1 18.3885 12.7305 7.0725
907 1 19.8030 14.1450 5.6580
908 1 21.2175 15.5595 7.0725
909 1 19.8030 11.3160 8.4870
910 1 18.3885 15.5595 9.9015
911 1 16.9740 14.1450 8.4870
912 1 21.2175 12.7305 9.9015
913 1 16.9740 11.3160 11.3160
914 1 18.3885 12.7305 12.7305
915 2 19.8030 14.1450 11.3160
916 1 21.2175 15.5595 12.7305
917 1 19.8030 11.3160 14.1450
918 1 18.3885 15.5595 15.5595
919 1 16.9740 14.1450 14.1450
920 1 21.2175 12.7305 15.5595
921 2 16.9740 11.3160 16.9740
922 1 18.3885 12.7305 18.3885
923 1 19.8030 14.1450 16.9740
924 1 21.2175 15.5595 18.3885
925 1 19.8030 11.3160 19.8030
926 1 18.3885 15.5595 21.2175
927 1 16.9740 14.1450 19.8030
928 1 21.2175 12.7305 21.2175
929 1 16.9740 11.3160 22.6320
930 1 18.3885 12.7305 24.0465
931 1 19.8030 14.1450 22.6320
932 1 21.2175 15.5595 24.0465
933 4 19.8030 11.3160 25.4610
934 1 18.3885 15.5595 26.8755
935 1 16.9740 14.1450 25.4610
936 1 21.2175 12.7305 26.8755
937 3 16.9740 11.3160 28.2900
938 1 18.3885 12.7305 29.7045
939 1 19.8030 14.1450 28.2900
940 1 21.2175 15.5595 29.7045
941 2 19.8030 11.3160 31.1190
942 1 18.3885 15.5595 32.5335
943 1 16.9740 14.1450 31.1190
944 1 21.2175 12.7305 32.5335
945 1 16.9740 11.3160 33.9480
946 1 18.3885 12.7305 35.3625
947 1 19.8030 14.1450 33.9480
948 1 21.2175 15.5595 35.3625
949 1 19.8030 11.3160 36.7770
950 1 18.3885 15.5595 38.1915
951 1 16.9740 14.1450 36.7770
952 1 21.2175 12.7305 38.1915
953 1 16.9740 11.3160 39.6060
954 1 18.3885 12.7305 41.0205
955 1 19.8030 14.1450 39.6060
956 1 21.2175 15.5595 41.0205
957 5 19.8030 11.3160 42.4350
958 5 18.3885 15.5595 43.8495
959 3 16.9740 14.1450 42.4350
960 1 21.2175 12.7305 43.8495
961 1 16.9740 16.9740 0.0000
962 1 18.3885 18.3885 1.4145
963 1 19.8030 19.8030 0.0000
964 1 21.2175 21.2175 1.4145
965 1 19.8030 16.9740 2.8290
966 1 18.3885 21.2175 4.2435
967 1 16.9740 19.8030 2.8290
968 1 21.2175 18.3885 4.2435
969 1 16.9740 16.9740 5.6580
970 1 18.3885 18.3885 7.0725
971 1 19.8030 19.8030 5.6580
972 1 21.2175 21.2175 7.0725
973 1 19.8030 16.9740 8.4870
974 1 18.3885 21.2175 9.9015
975 1 16.9740 19.8030 8.4870
976 1 21.2175 18.3885 9.9015
977 1 16.9740 16.9740 11.3160
978 2 18.3885 18.3885 12.7305
979 1 19.8030 19.8030 11.3160
980 1 21.2175 21.2175 12.7305
981 1 19.8030 16.9740 14.1450
982 1 18.3885 21.2175 15.5595
983 1 16.9740 19.8030 14.1450
984 1 21.2175 18.3885 15.5595
985 1 16.9740 16.9740 16.9740
986 1 18.3885 18.3885 18.3885
987 1 19.8030 19.8030 16.9740
988 1 21.2175 21.2175 18.3885
989 1 19.8030 16.9740 19.8030
990 1 18.3885 21.2175 21.2175
991 1 16.9740 19.8030 19.8030
992 1 21.2175 18.3885 21.2175
993 1 16.9740 16.9740 22.6320
994 1 18.3885 18.3885 24.0465
995 1 19.8030 19.8030 22.6320
996 1 21.2175 21.2175 24.0465
997 3 19.8030 16.9740 25.4610
998 1 18.3885 21.2175 26.8755
999 1 16.9740 19.8030 25.4610
1000 1 21.2175 18.3885 26.8755
1001 1 16.9740 16.9740 28.2900
1002 2 18.3885 18.3885 29.7045
1003 1 19.8030 19.8030 28.2900
1004 1 21.2175 21.2175 29.7045
1005 1 19.8030 16.9740 31.1190
1006 1 18.3885 21.2175 32.5335
1007 1 16.9740 19.8030 31.1190
1008 1 21.2175 18.3885 32.5335
1009 3 16.9740 16.9740 33.9480
1010 1 18.3885 18.3885 35.3625
1011 4 19.8030 19.8030 33.9480
1012 1 21.2175 21.2175 35.3625
1013 1 19.8030 16.9740 36.7770
1014 1 18.3885 21.2175 38.1915
1015 1 16.9740 19.8030 36.7770
1016 1 21.2175 18.3885 38.1915
1017 1 16.9740 16.9740 39.6060
1018 1 18.3885 18.3885 41.0205
1019 1 19.8030 19.8030 39.6060
1020 1 21.2175 21.2175 41.0205
1021 1 19.8030 16.9740 42.4350
1022 1 18.3885 21.2175 43.8495
1023 1 16.9740 19.8030 42.4350
1024 1 21.2175 18.3885 43.8495
