LAMMPS (29 Aug 2024 - Update 2)
# LAMMPS Input: Melt Lower Half (Impurities) and Cool, Solid (Ge) on Top

units           metal
dimension       3
boundary        p p f
atom_style      atomic

read_data       data.ge_solid_liquid_impurities.lammps
Reading data file ...
  orthogonal box = (0 0 0) to (22.632 22.632 45.264)
  1 by 1 by 1 MPI processor grid
  reading atoms ...
  1024 atoms
  read_data CPU = 0.003 seconds

# ---------- Define Potential ----------
pair_style      sw
pair_coeff      * * Ge_B_Al_Ga_P_full.sw Ge B Al Ga P

# ---------- Group Definitions ----------
region          bottom block INF INF INF INF INF 22.6 units box  # Melt (impurities)
region          top block INF INF INF INF 22.6 INF units box      # Solid Ge

group           melt region bottom
512 atoms in group melt
group           solid region top
512 atoms in group solid
group           impurities type 2 3 4 5
102 atoms in group impurities

# ---------- Velocity Initialization ----------
velocity        melt create 2000.0 4928459 dist gaussian mom yes rot yes

# ---------- Neighbor Setup ----------
neighbor        2.0 bin
neigh_modify    delay 0 every 1 check yes

# ---------- Thermo Output ----------
thermo          100
thermo_style    custom step temp pe ke etotal press
thermo_modify   lost ignore

# ---------- Boundary Wall to Prevent Atom Escape ----------
fix             wall all wall/reflect zlo EDGE

# ---------- Dump Configuration ----------
dump            1 all custom 500 dump.melt.lammpstrj id type x y z vx vy vz

# ---------- Time Step ----------
timestep        0.001

# ---------- Melt Phase ----------
fix             ensemble1 melt nvt temp 2000.0 2000.0 0.1
run             25000  # 25 ps of heating at 2000 K
Neighbor list info ...
  update: every = 1 steps, delay = 0 steps, check = yes
  max neighbors/atom: 2000, page size: 100000
  master list distance cutoff = 6.464
  ghost atom cutoff = 6.464
  binsize = 3.232, bins = 8 8 15
  1 neighbor lists, perpetual/occasional/extra = 1 0 0
  (1) pair sw, perpetual
      attributes: full, newton on
      pair build: full/bin/atomonly
      stencil: full/bin/3d
      bin: standard
Per MPI rank memory allocation (min/avg/max) = 3.134 | 3.134 | 3.134 Mbytes
   Step          Temp          PotEng         KinEng         TotEng         Press     
         0   999.02248     -3386.8881      132.10387     -3254.7843      304361.47    
       100   711.198       -3334.1207      94.043936     -3240.0768      341767.58    
       200   898.00039     -3334.5657      118.7454      -3215.8203      342103.43    
       300   961.76514     -3322.274       127.17721     -3195.0968      346162.45    
       400   993.18834     -3312.5345      131.3324      -3181.2021      347698.68    
       500   1085.1631     -3321.8972      143.49451     -3178.4027      344424.64    
       600   1046.6939     -3331.6525      138.40761     -3193.2449      345087.95    
       700   986.36757     -3334.8182      130.43047     -3204.3877      343458.81    
       800   955.13435     -3333.9949      126.3004      -3207.6945      342623.08    
       900   1007.5179     -3336.3159      133.22724     -3203.0887      343665.44    
      1000   1019.8623     -3332.956       134.85958     -3198.0964      343913.18    
      1100   1041.5124     -3329.9532      137.72244     -3192.2308      346670.19    
      1200   1044.0527     -3330.1607      138.05835     -3192.1023      345426.29    
      1300   979.41669     -3330.2464      129.51133     -3200.735       344646.76    
      1400   954.11981     -3329.9106      126.16625     -3203.7444      343750.94    
      1500   964.73865     -3329.8569      127.57041     -3202.2865      346373.11    
      1600   1046.8227     -3333.5672      138.42464     -3195.1425      344245.99    
      1700   1050.7108     -3326.1454      138.93878     -3187.2067      349158.99    
      1800   1107.9073     -3328.3745      146.50205     -3181.8724      348345.29    
      1900   1028.7211     -3329.8475      136.031       -3193.8165      348230.78    
      2000   1020.553      -3333.1727      134.95091     -3198.2218      347091.69    
      2100   978.6449      -3331.9541      129.40928     -3202.5448      345933.64    
      2200   1062.8237     -3344.1935      140.5405      -3203.653       345529.2     
      2300   1039.6953     -3338.1854      137.48216     -3200.7032      345744.05    
      2400   1007.4777     -3330.2146      133.22192     -3196.9926      348662.19    
      2500   979.71679     -3327.8567      129.55102     -3198.3057      345595.13    
      2600   1020.1574     -3336.2981      134.8986      -3201.3995      345072.27    
      2700   917.81084     -3332.5672      121.365       -3211.2022      345309.63    
      2800   932.24704     -3336.2816      123.27394     -3213.0076      343881.77    
      2900   1035.006      -3342.7077      136.86208     -3205.8456      344135.46    
      3000   1002.4311     -3327.4632      132.55459     -3194.9086      348528.67    
      3100   1047.1024     -3335.8725      138.46162     -3197.4109      345631.14    
      3200   977.56271     -3331.5693      129.26617     -3202.3031      345290.7     
      3300   971.51372     -3337.7934      128.4663      -3209.3271      347128.75    
      3400   997.72608     -3342.0421      131.93244     -3210.1096      346402.06    
      3500   955.20955     -3342.1455      126.31035     -3215.8352      343808.8     
      3600   900.22114     -3340.277       119.03906     -3221.2379      343431.54    
      3700   947.33722     -3334.9096      125.26936     -3209.6402      345005.94    
      3800   979.12063     -3330.9984      129.47218     -3201.5262      344025.97    
      3900   1021.8798     -3336.4094      135.12636     -3201.283       342617.75    
      4000   955.64667     -3332.7159      126.36815     -3206.3477      343304.55    
      4100   939.31905     -3337.3982      124.2091      -3213.1891      345380.03    
      4200   929.15419     -3343.6736      122.86497     -3220.8086      341318.95    
      4300   974.52734     -3339.8862      128.8648      -3211.0214      343342.46    
      4400   1009.1915     -3336.6523      133.44854     -3203.2038      344956.53    
      4500   1027.159      -3336.0193      135.82445     -3200.1949      344699.14    
      4600   971.35601     -3331.0551      128.44544     -3202.6096      345652.69    
      4700   1035.503      -3339.0794      136.9278      -3202.1516      344996.3     
      4800   991.26459     -3336.5418      131.07802     -3205.4638      344458.76    
      4900   948.42487     -3337.7924      125.41319     -3212.3792      345045.01    
      5000   954.51955     -3342.9119      126.21911     -3216.6928      343682.88    
      5100   965.87366     -3336.3126      127.7205      -3208.5921      345369.17    
      5200   1051.2756     -3339.8607      139.01347     -3200.8472      345165.01    
      5300   982.17359     -3329.5275      129.87589     -3199.6516      347993.09    
      5400   1033.7742     -3344.6223      136.6992      -3207.9231      345224.02    
      5500   998.78225     -3345.1482      132.0721      -3213.0761      342126.68    
      5600   980.36451     -3341.2648      129.63667     -3211.6281      344165.98    
      5700   1031.6995     -3339.3485      136.42486     -3202.9236      347947.28    
      5800   1035.0081     -3336.0914      136.86236     -3199.2291      346288.28    
      5900   969.90699     -3333.2595      128.25384     -3205.0057      345945.45    
      6000   1021.878      -3342.5117      135.12612     -3207.3856      343678.08    
      6100   995.70066     -3338.4783      131.66461     -3206.8137      346063.71    
      6200   996.19711     -3336.3802      131.73026     -3204.6499      346616.16    
      6300   1031.6312     -3338.5128      136.41583     -3202.097       346416.1     
      6400   1030.5196     -3334.5766      136.26883     -3198.3077      345255.55    
      6500   1005.2476     -3331.3293      132.92704     -3198.4023      348516.14    
      6600   1004.8487     -3337.1074      132.87428     -3204.2331      345080.96    
      6700   1018.6032     -3345.2458      134.69309     -3210.5527      345264.72    
      6800   977.53105     -3336.4372      129.26199     -3207.1752      345827.62    
      6900   997.00378     -3330.114       131.83693     -3198.2771      345058.93    
      7000   1057.5834     -3328.8523      139.84756     -3189.0048      350641.69    
      7100   1011.9279     -3328.9457      133.81039     -3195.1353      351125.62    
      7200   1011.1675     -3338.3879      133.70984     -3204.678       348906.33    
      7300   1008.8174     -3336.9977      133.39908     -3203.5986      346906.77    
      7400   1007.6253     -3337.1935      133.24144     -3203.9521      349218.74    
      7500   1008.2093     -3334.9965      133.31868     -3201.6778      348941.54    
      7600   944.56883     -3324.2529      124.90329     -3199.3496      351910.59    
      7700   1076.0208     -3331.807       142.2856      -3189.5214      350714.57    
      7800   1054.3186     -3333.3683      139.41585     -3193.9525      349494.88    
      7900   934.42021     -3328.4931      123.56131     -3204.9318      349530.07    
      8000   981.7333      -3336.8993      129.81767     -3207.0817      348821.93    
      8100   988.6241      -3334.1455      130.72886     -3203.4167      350617.34    
      8200   1015.6372     -3332.2489      134.30088     -3197.948       349203.28    
      8300   1049.7203     -3325.0992      138.8078      -3186.2914      352266.72    
      8400   1120.231      -3323.5947      148.13165     -3175.4631      353285.99    
      8500   1054.0189     -3327.5143      139.37622     -3188.1381      349126.56    
      8600   1074.3003     -3337.2657      142.0581      -3195.2076      349267.57    
      8700   939.1955      -3329.8414      124.19276     -3205.6487      351254.97    
      8800   967.30365     -3335.9885      127.90959     -3208.079       351511.5     
      8900   1022.2052     -3340.4724      135.16939     -3205.303       348861.51    
      9000   983.86265     -3334.632       130.09924     -3204.5327      349112.77    
      9100   986.91228     -3332.3369      130.5025      -3201.8344      349733.1     
      9200   1041.7743     -3336.1438      137.75708     -3198.3867      348264.15    
      9300   963.04361     -3328.4672      127.34627     -3201.1209      349790.56    
      9400   944.97916     -3333.354       124.95755     -3208.3964      349136.82    
      9500   931.24845     -3333.1074      123.1419      -3209.9655      348460.11    
      9600   1027.2073     -3332.9983      135.83084     -3197.1674      349681.63    
      9700   1003.7321     -3325.3707      132.72664     -3192.644       353477.88    
      9800   1046.6427     -3333.0781      138.40084     -3194.6773      348696.81    
      9900   934.51568     -3327.7311      123.57393     -3204.1571      349867.74    
     10000   965.1998      -3330.7266      127.63139     -3203.0952      350735.52    
     10100   990.79483     -3333.2634      131.0159      -3202.2475      348868.59    
     10200   1012.1549     -3329.5647      133.84041     -3195.7243      351404.58    
     10300   1057.5945     -3327.025       139.84903     -3187.1759      350940.27    
     10400   1038.4721     -3329.2886      137.32042     -3191.9681      350271.67    
     10500   1003.0287     -3333.2504      132.63363     -3200.6167      350288.19    
     10600   1041.7527     -3339.432       137.75421     -3201.6778      347133.2     
     10700   1024.8129     -3338.7073      135.51421     -3203.1931      346910.26    
     10800   981.91544     -3338.1891      129.84175     -3208.3474      350254.66    
     10900   942.73987     -3337.3961      124.66144     -3212.7347      347686.84    
     11000   1020.8552     -3337.769       134.99088     -3202.7781      345789.15    
     11100   1006.2383     -3329.8881      133.05804     -3196.8301      350177.7     
     11200   1016.7654     -3334.6995      134.45007     -3200.2495      350137.12    
     11300   997.80135     -3337.1111      131.94239     -3205.1687      347880.8     
     11400   956.66043     -3340.9749      126.5022      -3214.4727      346897.96    
     11500   930.08927     -3344.5097      122.98861     -3221.5211      345293.2     
     11600   920.01593     -3335.78        121.65659     -3214.1234      349524.12    
     11700   1022.1643     -3341.4814      135.16398     -3206.3174      348237.72    
     11800   1010.7116     -3337.7883      133.64956     -3204.1387      348010.97    
     11900   923.15875     -3325.948       122.07217     -3203.8759      349072.7     
     12000   1047.9763     -3334.1907      138.57719     -3195.6135      347541.49    
     12100   1021.2348     -3323.463       135.04107     -3188.4219      352227.98    
     12200   994.99505     -3325.664       131.57131     -3194.0927      351515.84    
     12300   950.87726     -3328.8121      125.73747     -3203.0747      347722.14    
     12400   989.34799     -3334.942       130.82458     -3204.1175      348976.59    
     12500   953.98973     -3332.4272      126.14905     -3206.2781      350071.01    
     12600   1074.3612     -3334.5332      142.06614     -3192.4671      351880.31    
     12700   1015.932      -3322.7211      134.33987     -3188.3813      355997.4     
     12800   1035.256      -3332.6911      136.89515     -3195.796       351508.16    
     12900   1004.2768     -3334.0893      132.79866     -3201.2906      350592.03    
     13000   961.4991      -3330.7426      127.14203     -3203.6006      352627.09    
     13100   981.22302     -3331.2711      129.75019     -3201.5209      354444.23    
     13200   1065.4938     -3337.959       140.89358     -3197.0654      350207.45    
     13300   974.44659     -3316.6938      128.85412     -3187.8397      356213.1     
     13400   1032.77       -3321.2058      136.56641     -3184.6394      354050.81    
     13500   1008.4453     -3329.8668      133.34988     -3196.5169      353540.56    
     13600   1002.7546     -3334.138       132.59737     -3201.5406      350394.81    
     13700   967.67047     -3334.032       127.95809     -3206.0739      349968.85    
     13800   978.80513     -3340.7058      129.43046     -3211.2753      346560.94    
     13900   947.06294     -3338.1515      125.23309     -3212.9184      347496.19    
     14000   993.52428     -3341.3741      131.37682     -3209.9973      349515.62    
     14100   981.74741     -3330.0079      129.81953     -3200.1884      353130.05    
     14200   1087.2589     -3339.0246      143.77164     -3195.2529      350799.12    
     14300   1026.4598     -3336.4802      135.73199     -3200.7482      349923.85    
     14400   1001.5992     -3338.945       132.44459     -3206.5004      348666.01    
     14500   1007.1268     -3342.3617      133.17553     -3209.1862      345730.3     
     14600   946.16977     -3338.9344      125.11499     -3213.8195      350365.94    
     14700   1054.8583     -3346.9867      139.48722     -3207.4995      346236.74    
     14800   990.42221     -3330.8954      130.96663     -3199.9288      349197.57    
     14900   1046.7818     -3335.2665      138.41923     -3196.8473      351342.33    
     15000   1074.3536     -3346.5207      142.06514     -3204.4556      347485.23    
     15100   1002.6527     -3344.365       132.58391     -3211.7811      345829       
     15200   986.54864     -3341.1706      130.45441     -3210.7162      346766.2     
     15300   992.986       -3336.4259      131.30564     -3205.1202      348040.62    
     15400   1047.8417     -3339.6438      138.55938     -3201.0844      347351.23    
     15500   1025.2229     -3332.3104      135.56843     -3196.7419      351693.06    
     15600   968.53603     -3332.4138      128.07255     -3204.3412      350116       
     15700   1021.3226     -3347.432       135.05268     -3212.3793      345328.93    
     15800   980.49017     -3340.327       129.65328     -3210.6737      346354.7     
     15900   1006.7865     -3337.753       133.13053     -3204.6225      349521.25    
     16000   1052.9297     -3332.9531      139.23219     -3193.7209      351208.16    
     16100   1065.6713     -3334.5171      140.91705     -3193.6         351973.7     
     16200   1015.9294     -3341.5401      134.33952     -3207.2005      347373.43    
     16300   984.05634     -3340.5505      130.12485     -3210.4256      349658.07    
     16400   956.37119     -3336.4367      126.46395     -3209.9727      350158.79    
     16500   1063.9881     -3344.1349      140.69447     -3203.4404      347235.04    
     16600   1001.5557     -3331.4077      132.43884     -3198.9689      354266.36    
     16700   1007.9176     -3336.7498      133.28009     -3203.4697      350191.46    
     16800   1001.6761     -3345.5705      132.45477     -3213.1157      345063.31    
     16900   967.89524     -3343.1021      127.98782     -3215.1143      349595.14    
     17000   999.23652     -3344.7189      132.13217     -3212.5867      349967.48    
     17100   1014.9484     -3338.102       134.2098      -3203.8922      352838.08    
     17200   1012.0456     -3337.1362      133.82595     -3203.3103      352534.75    
     17300   977.77367     -3332.0239      129.29407     -3202.7298      353439.56    
     17400   1045.4632     -3340.737       138.24487     -3202.4921      351492.76    
     17500   1026.6945     -3339.6106      135.76303     -3203.8476      351680.85    
     17600   959.37401     -3339.4903      126.86103     -3212.6292      352616.85    
     17700   924.57166     -3339.2544      122.259       -3216.9954      350497.12    
     17800   996.95092     -3342.1067      131.82994     -3210.2768      349215.92    
     17900   992.80925     -3337.9764      131.28227     -3206.6941      350207.16    
     18000   1064.7657     -3338.3008      140.7973      -3197.5035      351640.94    
     18100   957.07872     -3314.7931      126.55751     -3188.2356      359663.23    
     18200   1053.1957     -3331.1012      139.26737     -3191.8338      352929.28    
     18300   1003.8846     -3336.2437      132.7468      -3203.4969      351973.58    
     18400   976.015       -3336.5812      129.06152     -3207.5197      349750.74    
     18500   1020.9214     -3342.3721      134.99963     -3207.3725      349402.51    
     18600   946.95307     -3337.6955      125.21857     -3212.4769      352730.56    
     18700   1009.5734     -3346.8757      133.49905     -3213.3766      348444.48    
     18800   967.05241     -3341.7605      127.87637     -3213.8841      351872.55    
     18900   933.55706     -3328.4563      123.44717     -3205.0092      354706.2     
     19000   1089.9914     -3340.8145      144.13297     -3196.6815      354180.31    
     19100   1057.3107     -3339.2512      139.8115      -3199.4397      352732.74    
     19200   980.62943     -3336.6359      129.6717      -3206.9642      354662.88    
     19300   954.59954     -3338.8481      126.22968     -3212.6184      351533.65    
     19400   950.82908     -3333.9549      125.7311      -3208.2238      354659.29    
     19500   1031.8787     -3337.3967      136.44855     -3200.9481      349825.69    
     19600   999.53101     -3322.2374      132.17111     -3190.0662      357449.16    
     19700   1072.0248     -3330.0778      141.7572      -3188.3206      357037.94    
     19800   1019.7728     -3331.5283      134.84775     -3196.6806      355507.89    
     19900   1000.9409     -3334.4608      132.35755     -3202.1033      353701.53    
     20000   988.78985     -3339.9345      130.75078     -3209.1838      354317.54    
     20100   970.85636     -3342.2711      128.37937     -3213.8918      351578.07    
     20200   1060.3381     -3349.3834      140.21182     -3209.1716      350253.02    
     20300   1015.1274     -3340.2929      134.23348     -3206.0594      352819.81    
     20400   1050.5485     -3338.9583      138.91732     -3200.041       352864.76    
     20500   973.59256     -3335.7412      128.74119     -3207           351926.94    
     20600   993.0353      -3347.0945      131.31216     -3215.7823      350895.14    
     20700   977.18997     -3343.3507      129.21689     -3214.1339      352808.78    
     20800   964.31087     -3337.7143      127.51384     -3210.2005      353951.05    
     20900   1055.6543     -3338.3923      139.59247     -3198.7999      351573.64    
     21000   1080.2396     -3332.8913      142.84347     -3190.0478      354879.04    
     21100   1021.0298     -3331.0509      135.01396     -3196.037       356548.98    
     21200   1017.5775     -3336.716       134.55746     -3202.1585      353858.02    
     21300   1024.206      -3340.2935      135.43396     -3204.8595      349939.04    
     21400   961.6176      -3338.9209      127.1577      -3211.7632      350580.78    
     21500   1023.1349     -3349.0064      135.29232     -3213.7141      349067.58    
     21600   928.93591     -3345.0532      122.8361      -3222.2171      350927.43    
     21700   897.70557     -3351.0053      118.70642     -3232.2988      350929.77    
     21800   947.10275     -3346.3544      125.23836     -3221.1161      352504.94    
     21900   977.29292     -3339.4999      129.2305      -3210.2694      352771.99    
     22000   1004.4538     -3339.557       132.82206     -3206.7349      352481.49    
     22100   1017.8887     -3340.701       134.5986      -3206.1024      354152.58    
     22200   957.30883     -3337.9997      126.58794     -3211.4117      353997.55    
     22300   970.01631     -3347.7875      128.26829     -3219.5192      349477.33    
     22400   1008.5897     -3353.6783      133.36897     -3220.3093      345680.17    
     22500   983.30674     -3344.9822      130.02573     -3214.9565      350234.21    
     22600   1042.7755     -3337.8914      137.88947     -3200.0019      352789.89    
     22700   1032.9481     -3333.9896      136.58995     -3197.3996      353236.99    
     22800   1014.1731     -3338.4928      134.10728     -3204.3855      353244.61    
     22900   988.6282      -3343.0002      130.7294      -3212.2708      351199.31    
     23000   996.02092     -3345.9223      131.70696     -3214.2153      348322.41    
     23100   1020.8752     -3347.6024      134.99352     -3212.6089      349773.07    
     23200   991.5566      -3343.3365      131.11663     -3212.2198      348117.71    
     23300   1042.0121     -3348.996       137.78851     -3211.2075      347092.19    
     23400   1051.5516     -3350.1471      139.04996     -3211.0971      351321.02    
     23500   984.77211     -3346.007       130.2195      -3215.7875      348530.82    
     23600   933.18959     -3347.147       123.39858     -3223.7484      348018.59    
     23700   983.32603     -3354.2464      130.02828     -3224.2182      348198.37    
     23800   1006.7156     -3344.2429      133.12115     -3211.1218      349159.47    
     23900   1004.1241     -3337.7522      132.77847     -3204.9737      355474.01    
     24000   1025.7084     -3343.9621      135.63263     -3208.3295      353023.62    
     24100   982.87756     -3344.3054      129.96897     -3214.3364      350722.78    
     24200   989.88202     -3345.4467      130.8952      -3214.5515      348886.32    
     24300   988.07674     -3343.2651      130.65648     -3212.6086      353096.18    
     24400   1007.6713     -3339.2468      133.24753     -3205.9993      353337.21    
     24500   1060.0545     -3344.2139      140.17433     -3204.0396      352846.76    
     24600   1029.5163     -3345.1825      136.13616     -3209.0464      351194.11    
     24700   985.51189     -3343.4295      130.31732     -3213.1121      350943.75    
     24800   968.75891     -3340.9208      128.10202     -3212.8188      355057.61    
     24900   1016.3856     -3341.5632      134.39985     -3207.1633      352736.95    
     25000   1046.2819     -3344.7289      138.35313     -3206.3758      351547.17    
Loop time of 69.4226 on 1 procs for 25000 steps with 1024 atoms

Performance: 31.114 ns/day, 0.771 hours/ns, 360.113 timesteps/s, 368.756 katom-step/s
99.2% CPU use with 1 MPI tasks x no OpenMP threads

MPI task timing breakdown:
Section |  min time  |  avg time  |  max time  |%varavg| %total
---------------------------------------------------------------
Pair    | 68.576     | 68.576     | 68.576     |   0.0 | 98.78
Neigh   | 0.49307    | 0.49307    | 0.49307    |   0.0 |  0.71
Comm    | 0.093148   | 0.093148   | 0.093148   |   0.0 |  0.13
Output  | 0.045044   | 0.045044   | 0.045044   |   0.0 |  0.06
Modify  | 0.16944    | 0.16944    | 0.16944    |   0.0 |  0.24
Other   |            | 0.04625    |            |       |  0.07

Nlocal:           1024 ave        1024 max        1024 min
Histogram: 1 0 0 0 0 0 0 0 0 0
Nghost:           1483 ave        1483 max        1483 min
Histogram: 1 0 0 0 0 0 0 0 0 0
Neighs:              0 ave           0 max           0 min
Histogram: 1 0 0 0 0 0 0 0 0 0
FullNghs:        44928 ave       44928 max       44928 min
Histogram: 1 0 0 0 0 0 0 0 0 0

Total # of neighbors = 44928
Ave neighs/atom = 43.875
Neighbor list builds = 417
Dangerous builds = 0

unfix           ensemble1

# ---------- Cooldown Phase ----------
fix             ensemble2 melt nvt temp 2000.0 1000.0 0.1
run             25000  # 25 ps of cooling to 1000 K
Per MPI rank memory allocation (min/avg/max) = 4.447 | 4.447 | 4.447 Mbytes
   Step          Temp          PotEng         KinEng         TotEng         Press     
     25000   1046.2819     -3345.2324      138.35313     -3206.8793      351317.09    
     25100   1029.6002     -3343.8494      136.14725     -3207.7022      352286.93    
     25200   943.65605     -3342.6584      124.78259     -3217.8758      352903.45    
     25300   979.93751     -3351.4216      129.5802      -3221.8414      348949.99    
     25400   915.30381     -3342.3064      121.03349     -3221.2729      349432.85    
     25500   1010.1321     -3344.2788      133.57292     -3210.7059      352226.26    
     25600   1016.2353     -3346.8541      134.37997     -3212.4741      351324.3     
     25700   1007.2249     -3344.9276      133.18851     -3211.7391      351623.86    
     25800   1003.9845     -3342.954       132.76001     -3210.194       350767.64    
     25900   1006.9562     -3351.2653      133.15297     -3218.1123      348506.91    
     26000   901.6167      -3342.6729      119.2236      -3223.4494      350375.89    
     26100   988.91688     -3353.0676      130.76757     -3222.3         348627.2     
     26200   996.68166     -3349.3153      131.79433     -3217.521       347918.83    
     26300   992.5744      -3332.4767      131.25122     -3201.2255      353658.97    
     26400   1073.8671     -3343.3226      142.00081     -3201.3218      351421.54    
     26500   959.35525     -3337.358       126.85855     -3210.4995      351233.78    
     26600   956.72779     -3341.2337      126.51111     -3214.7226      352346.33    
     26700   942.39225     -3341.4781      124.61548     -3216.8627      353267.38    
     26800   945.62811     -3343.4214      125.04336     -3218.378       352116.1     
     26900   990.1963      -3349.0904      130.93675     -3218.1536      348416.24    
     27000   939.34574     -3346.1213      124.21263     -3221.9086      345542.04    
     27100   956.06463     -3353.0892      126.42342     -3226.6658      349148.71    
     27200   920.02657     -3353.5484      121.65799     -3231.8904      344933.17    
     27300   983.98269     -3358.9029      130.11511     -3228.7878      345778.45    
     27400   983.03058     -3346.3015      129.98921     -3216.3123      350500.8     
     27500   1004.7187     -3349.2004      132.8571      -3216.3434      347980.18    
     27600   954.69424     -3348.1213      126.24221     -3221.8791      351443.84    
     27700   945.52266     -3351.2144      125.02942     -3226.185       348977.21    
     27800   937.6063      -3354.7889      123.98261     -3230.8062      349413.83    
     27900   920.15716     -3351.3805      121.67526     -3229.7053      350926.19    
     28000   941.24814     -3344.6299      124.46419     -3220.1657      353218.18    
     28100   901.14879     -3330.5029      119.16172     -3211.3411      355371.47    
     28200   1002.7276     -3349.4524      132.59381     -3216.8586      351542.81    
     28300   971.80514     -3355.4835      128.50483     -3226.9786      350036.47    
     28400   944.00574     -3355.5084      124.82883     -3230.6796      347678.98    
     28500   918.82267     -3355.1664      121.4988      -3233.6676      346807.51    
     28600   918.54403     -3354.1546      121.46195     -3232.6926      347951.94    
     28700   890.08009     -3346.7293      117.69808     -3229.0312      352356.85    
     28800   975.99347     -3350.3414      129.05867     -3221.2827      350869.05    
     28900   966.92718     -3352.0247      127.85981     -3224.1649      349122.14    
     29000   916.47062     -3356.6326      121.18778     -3235.4448      347235.35    
     29100   893.2542      -3357.4486      118.1178      -3239.3308      345627.38    
     29200   888.05315     -3357.0959      117.43005     -3239.6658      347271.51    
     29300   894.63979     -3358.5753      118.30102     -3240.2743      348998.85    
     29400   908.6275      -3356.8764      120.15066     -3236.7257      348565.73    
     29500   929.71791     -3353.5627      122.93951     -3230.6232      346764.58    
     29600   982.61577     -3355.8933      129.93436     -3225.959       349562.1     
     29700   916.40185     -3359.3101      121.17868     -3238.1314      349742.43    
     29800   843.77433     -3353.6368      111.57492     -3242.0619      346603.51    
     29900   920.24942     -3363.2042      121.68746     -3241.5167      345504.45    
     30000   870.79528     -3354.2043      115.14798     -3239.0563      348875.54    
     30100   906.2779      -3348.6461      119.83996     -3228.8061      349229.57    
     30200   927.73762     -3351.3203      122.67765     -3228.6427      349745.97    
     30300   883.50514     -3350.9486      116.82865     -3234.12        350659.3     
     30400   871.94307     -3354.1964      115.29976     -3238.8966      346639.41    
     30500   901.08338     -3360.6887      119.15307     -3241.5356      347936.93    
     30600   851.61363     -3360.6862      112.61153     -3248.0747      346887.23    
     30700   826.57916     -3361.6001      109.30115     -3252.299       350592.38    
     30800   826.78809     -3362.8984      109.32878     -3253.5697      347342.58    
     30900   884.87801     -3359.0953      117.01019     -3242.0851      351286.04    
     31000   927.64722     -3359.6027      122.66569     -3236.937       348259.35    
     31100   902.2772      -3359.3861      119.31094     -3240.0752      346753.28    
     31200   848.00839     -3360.4305      112.1348      -3248.2957      345159.49    
     31300   865.55792     -3369.6059      114.45543     -3255.1505      345115.49    
     31400   844.22987     -3367.8426      111.63516     -3256.2074      346826.42    
     31500   885.79325     -3369.9678      117.13121     -3252.8366      344026.97    
     31600   868.25731     -3365.4862      114.81238     -3250.6739      346370.49    
     31700   910.22773     -3367.3061      120.36226     -3246.9438      346957.69    
     31800   882.08859     -3363.1615      116.64133     -3246.5202      349635.61    
     31900   835.9145      -3363.538       110.53559     -3253.0024      345952.14    
     32000   850.64552     -3369.9767      112.48352     -3257.4932      345398.32    
     32100   834.54845     -3370.8454      110.35495     -3260.4905      345762.97    
     32200   887.30073     -3375.5403      117.33055     -3258.2097      341822.55    
     32300   876.64357     -3362.9589      115.92132     -3247.0376      347411.31    
     32400   911.07589     -3366.9501      120.47442     -3246.4757      345412.53    
     32500   869.76137     -3372.1209      115.01127     -3257.1096      344567.8     
     32600   817.66376     -3366.5947      108.12224     -3258.4725      344087.35    
     32700   856.84839     -3374.7695      113.30374     -3261.4658      341180.76    
     32800   837.1713      -3378.9996      110.70178     -3268.2978      342033.37    
     32900   783.74716     -3377.5452      103.63734     -3273.9078      340851.29    
     33000   817.16604     -3378.6689      108.05642     -3270.6124      339841.29    
     33100   854.56665     -3380.8358      113.00202     -3267.8338      341160.71    
     33200   860.8376      -3378.9997      113.83125     -3265.1685      342432.29    
     33300   872.55295     -3378.1707      115.38041     -3262.7903      342006.22    
     33400   827.03421     -3373.3909      109.36132     -3264.0296      341485.06    
     33500   844.07608     -3380.4642      111.61482     -3268.8494      343515.96    
     33600   821.96455     -3384.3852      108.69094     -3275.6943      339413.36    
     33700   798.13659     -3381.3069      105.5401      -3275.7668      342657.7     
     33800   805.19718     -3372.7515      106.47374     -3266.2777      341107.99    
     33900   848.78787     -3371.2835      112.23788     -3259.0456      343685.37    
     34000   837.40461     -3374.4376      110.73263     -3263.705       342513.81    
     34100   813.65722     -3377.1536      107.59244     -3269.5611      341790.7     
     34200   814.8309      -3380.2745      107.74764     -3272.5269      340178.34    
     34300   808.4064      -3380.3246      106.89811     -3273.4265      341220.56    
     34400   845.00309     -3379.5383      111.7374      -3267.8009      344138.95    
     34500   870.36178     -3373.0435      115.09066     -3257.9528      340495.96    
     34600   831.67989     -3370.3622      109.97563     -3260.3866      343423.5     
     34700   811.17377     -3375.415       107.26405     -3268.151       342381.14    
     34800   824.60148     -3382.007       109.03963     -3272.9674      340022.36    
     34900   769.11479     -3375.3621      101.70245     -3273.6596      343549.31    
     35000   821.76255     -3379.8401      108.66423     -3271.1759      342196.28    
     35100   787.80791     -3372.1562      104.1743      -3267.9819      344855.41    
     35200   876.73094     -3379.7875      115.93287     -3263.8546      342176.4     
     35300   826.79903     -3379.7663      109.33022     -3270.4361      341733.52    
     35400   781.5476      -3381.6273      103.34648     -3278.2808      342084.32    
     35500   829.56817     -3389.3231      109.69639     -3279.6267      340913.58    
     35600   784.89288     -3382.3648      103.78884     -3278.576       338620.43    
     35700   785.68316     -3383.4765      103.89334     -3279.5831      338114.68    
     35800   766.09586     -3384.1509      101.30325     -3282.8476      339269.69    
     35900   781.39014     -3384.2729      103.32566     -3280.9473      340355.98    
     36000   799.85129     -3380.3672      105.76684     -3274.6003      341564.89    
     36100   774.41269     -3375.4968      102.40301     -3273.0938      343140.39    
     36200   771.77863     -3378.7204      102.0547      -3276.6657      341381.16    
     36300   730.10125     -3380.9316      96.543572     -3284.388       342526.39    
     36400   750.81055     -3384.8549      99.282028     -3285.5728      336935.36    
     36500   754.7344      -3381.0862      99.800891     -3281.2853      338519.52    
     36600   759.44272     -3373.5844      100.42349     -3273.1609      344161.54    
     36700   778.94267     -3375.6868      103.00203     -3272.6848      341716.65    
     36800   760.05874     -3376.3892      100.50495     -3275.8842      343520.36    
     36900   733.68762     -3375.612       97.017809     -3278.5941      339432.54    
     37000   760.69536     -3385.1234      100.58913     -3284.5342      337335.79    
     37100   711.79581     -3383.2437      94.122987     -3289.1207      338677.39    
     37200   798.08933     -3391.6622      105.53385     -3286.1284      336434.05    
     37300   788.69412     -3388.8702      104.29149     -3284.5787      337256.57    
     37400   747.63285     -3384.169       98.861831     -3285.3072      340253.61    
     37500   709.66769     -3384.2847      93.841579     -3290.4432      338374.16    
     37600   750.58536     -3394.7527      99.252251     -3295.5004      335674.64    
     37700   725.1552      -3392.2515      95.889541     -3296.3619      337442.94    
     37800   756.77048     -3389.5013      100.07013     -3289.4311      338850.59    
     37900   754.10183     -3382.413       99.717244     -3282.6957      338224.27    
     38000   743.52576     -3381.269       98.318737     -3282.9503      339940.64    
     38100   735.48955     -3385.7759      97.256084     -3288.5198      340580.17    
     38200   733.48335     -3395.4135      96.990798     -3298.4227      335141.48    
     38300   681.68163     -3383.5435      90.140895     -3293.4026      339496.76    
     38400   730.51578     -3384.0191      96.598387     -3287.4207      338665.15    
     38500   753.56856     -3384.4203      99.646728     -3284.7736      339175.02    
     38600   763.76041     -3386.6651      100.99443     -3285.6707      337246.21    
     38700   720.12215     -3388.925       95.224004     -3293.701       337523.51    
     38800   730.22109     -3392.6628      96.559419     -3296.1033      335383.67    
     38900   690.02736     -3388.7816      91.244477     -3297.5371      337105.68    
     39000   733.85602     -3390.7739      97.040077     -3293.7338      334525.75    
     39100   769.91524     -3388.695       101.8083      -3286.8867      337934.07    
     39200   722.49768     -3384.3203      95.538128     -3288.7822      337176.64    
     39300   736.57224     -3395.9904      97.399252     -3298.5912      333749.09    
     39400   710.95659     -3393.1785      94.012014     -3299.1664      335525.13    
     39500   704.01003     -3392.2835      93.093449     -3299.1901      335868.77    
     39600   718.00798     -3393.8711      94.944441     -3298.9267      335521.45    
     39700   713.64887     -3394.087       94.368022     -3299.7189      335825.61    
     39800   675.86013     -3394.2328      89.371099     -3304.8617      336459.61    
     39900   661.31323     -3391.9707      87.447517     -3304.5232      335070.81    
     40000   707.53021     -3393.8388      93.558933     -3300.2799      334304.84    
     40100   709.47552     -3387.2769      93.816168     -3293.4608      338346.83    
     40200   765.97456     -3393.3711      101.28721     -3292.0839      334989.39    
     40300   667.86719     -3389.8392      88.314168     -3301.525       337136.22    
     40400   697.48466     -3397.6586      92.230579     -3305.428       335322.13    
     40500   660.71543     -3396.8687      87.368468     -3309.5003      332844.66    
     40600   642.6121      -3395.3976      84.974608     -3310.423       334025.37    
     40700   682.8613      -3395.9851      90.296886     -3305.6882      334866.3     
     40800   684.73165     -3387.5555      90.544208     -3297.0113      339045.3     
     40900   713.57591     -3390.1879      94.358375     -3295.8295      336127.47    
     41000   698.00799     -3397.1967      92.29978      -3304.8969      334350.71    
     41100   708.41887     -3401.8824      93.676443     -3308.206       332115.26    
     41200   664.955       -3397.2922      87.929079     -3309.3631      333603.4     
     41300   648.51398     -3396.333       85.755032     -3310.578       336390.22    
     41400   699.69087     -3401.2633      92.522312     -3308.741       336236.02    
     41500   682.49944     -3393.2128      90.249036     -3302.9638      335806.88    
     41600   693.87613     -3392.4785      91.753412     -3300.7251      336555.85    
     41700   700.9914      -3402.4004      92.694286     -3309.7062      331942.08    
     41800   700.41245     -3403.9209      92.61773      -3311.3031      330487.41    
     41900   639.82925     -3395.5399      84.606624     -3310.9333      336313.04    
     42000   679.24027     -3399.6107      89.818066     -3309.7926      333918.87    
     42100   671.58206     -3402.2637      88.805397     -3313.4583      332558.1     
     42200   630.21698     -3400.1135      83.335563     -3316.778       333178.33    
     42300   655.89662     -3403.8871      86.731262     -3317.1559      334601.33    
     42400   655.39765     -3401.181       86.665281     -3314.5157      336365.49    
     42500   668.78847     -3393.6874      88.435992     -3305.2514      336755.87    
     42600   702.05537     -3394.7794      92.834978     -3301.9444      335786.05    
     42700   705.69243     -3401.4887      93.315918     -3308.1728      332730.63    
     42800   622.74115     -3394.6803      82.34701      -3312.3332      337184.89    
     42900   642.34904     -3402.9677      84.939823     -3318.0279      331906.82    
     43000   651.92758     -3407.7596      86.206424     -3321.5532      331614.08    
     43100   626.69608     -3406.7656      82.869983     -3323.8956      330864.11    
     43200   622.01463     -3402.4418      82.250941     -3320.1909      333767.8     
     43300   660.28244     -3405.2873      87.311212     -3317.976       332464.19    
     43400   660.79558     -3400.8931      87.379067     -3313.514       334349.42    
     43500   653.28974     -3398.3624      86.386546     -3311.9759      337146.69    
     43600   608.69361     -3400.9523      80.48946      -3320.4628      337151.19    
     43700   621.3352      -3405.0302      82.161098     -3322.8691      334236.79    
     43800   608.70205     -3403.6618      80.490577     -3323.1712      332687.69    
     43900   610.40466     -3404.7094      80.715718     -3323.9937      332864.56    
     44000   642.86611     -3402.1406      85.008197     -3317.1324      332764.05    
     44100   644.13289     -3401.8619      85.175707     -3316.6862      336660.71    
     44200   638.95471     -3409.7108      84.49098      -3325.2199      332344.39    
     44300   622.78288     -3409.5924      82.352529     -3327.2399      331657.26    
     44400   602.12335     -3406.4794      79.620655     -3326.8587      332764.32    
     44500   623.78643     -3406.4848      82.485231     -3323.9995      332777       
     44600   643.24113     -3407.0808      85.057787     -3322.023       334077.22    
     44700   628.93785     -3406.0199      83.166419     -3322.8535      332446.93    
     44800   596.67448     -3405.9096      78.900133     -3327.0095      331689.45    
     44900   620.45973     -3413.5056      82.045331     -3331.4603      331085.74    
     45000   583.40883     -3412.7064      77.145975     -3335.5604      331010.8     
     45100   585.12713     -3408.4123      77.373191     -3331.0391      331964.68    
     45200   615.04714     -3404.0073      81.329607     -3322.6777      333751.97    
     45300   638.22319     -3400.8132      84.394249     -3316.4189      333010.62    
     45400   629.83566     -3406.6104      83.28514      -3323.3253      331599.9     
     45500   590.9273      -3408.4656      78.140166     -3330.3255      331040.09    
     45600   576.66294     -3411.2441      76.253945     -3334.9902      331400.28    
     45700   582.46475     -3414.8899      77.021136     -3337.8688      329032.91    
     45800   571.94804     -3412.8341      75.630478     -3337.2037      328673.93    
     45900   579.90587     -3409.217       76.682768     -3332.5342      329805.82    
     46000   597.89805     -3407.8362      79.061929     -3328.7743      330001.82    
     46100   581.86679     -3408.8658      76.942066     -3331.9237      329720.44    
     46200   598.28267     -3413.5443      79.112789     -3334.4315      329295.49    
     46300   573.11017     -3413.8924      75.784151     -3338.1083      328601.84    
     46400   607.77414     -3420.0133      80.367875     -3339.6455      327805.35    
     46500   585.40077     -3417.6123      77.409375     -3340.203       328476.82    
     46600   588.6985      -3412.0361      77.845444     -3334.1906      328812.75    
     46700   606.22322     -3408.6466      80.162793     -3328.4838      332521.82    
     46800   583.28369     -3412.5981      77.129427     -3335.4687      328265.61    
     46900   560.23325     -3413.3246      74.081395     -3339.2432      330454.4     
     47000   563.69465     -3416.6785      74.539107     -3342.1394      328818.38    
     47100   542.25752     -3415.606       71.704408     -3343.9016      328065.19    
     47200   554.19918     -3418.054       73.283491     -3344.7705      329953.85    
     47300   567.4549      -3416.8163      75.036336     -3341.78        331848.19    
     47400   595.40332     -3415.1189      78.732044     -3336.3868      329393.15    
     47500   549.24485     -3411.1435      72.628365     -3338.5151      330554.24    
     47600   531.98402     -3415.0151      70.345911     -3344.6692      329502.06    
     47700   540.02006     -3418.2633      71.408542     -3346.8547      328813.21    
     47800   525.1924      -3416.7057      69.447834     -3347.2578      328716.39    
     47900   544.45625     -3416.5649      71.995153     -3344.5698      328024.1     
     48000   557.72381     -3414.3897      73.749563     -3340.6401      328816.07    
     48100   567.90652     -3414.9827      75.096055     -3339.8866      329366.9     
     48200   530.84413     -3416.6855      70.19518      -3346.4903      330264.59    
     48300   545.11437     -3421.3608      72.082178     -3349.2786      328237.75    
     48400   507.84388     -3416.9894      67.153785     -3349.8356      327367.84    
     48500   527.01365     -3416.8555      69.688663     -3347.1669      328877.54    
     48600   550.4105      -3415.4516      72.782503     -3342.6691      329710.99    
     48700   544.01527     -3416.4033      71.936841     -3344.4665      328380.96    
     48800   525.42015     -3420.7338      69.477949     -3351.2558      327227.52    
     48900   524.00821     -3421.4103      69.291244     -3352.119       327847.86    
     49000   525.70715     -3421.9952      69.515901     -3352.4793      329370.73    
     49100   530.53391     -3420.0174      70.154158     -3349.8633      326456.52    
     49200   544.72176     -3417.3257      72.030263     -3345.2955      328836.57    
     49300   527.40294     -3418.6406      69.740141     -3348.9004      328403.51    
     49400   500.83655     -3421.0093      66.227184     -3354.7821      329479.78    
     49500   513.50256     -3424.3362      67.90205      -3356.4342      327781.75    
     49600   515.65415     -3425.4992      68.186562     -3357.3126      325791.64    
     49700   524.81631     -3427.2914      69.398102     -3357.8933      326728.12    
     49800   485.22978     -3423.4515      64.163452     -3359.288       328054.13    
     49900   481.57812     -3424.4962      63.680581     -3360.8156      326270.65    
     50000   481.06949     -3426.7715      63.613324     -3363.1581      326454.8     
Loop time of 71.0606 on 1 procs for 25000 steps with 1024 atoms

Performance: 30.397 ns/day, 0.790 hours/ns, 351.813 timesteps/s, 360.256 katom-step/s
99.3% CPU use with 1 MPI tasks x no OpenMP threads

MPI task timing breakdown:
Section |  min time  |  avg time  |  max time  |%varavg| %total
---------------------------------------------------------------
Pair    | 70.351     | 70.351     | 70.351     |   0.0 | 99.00
Neigh   | 0.3608     | 0.3608     | 0.3608     |   0.0 |  0.51
Comm    | 0.090289   | 0.090289   | 0.090289   |   0.0 |  0.13
Output  | 0.043515   | 0.043515   | 0.043515   |   0.0 |  0.06
Modify  | 0.16845    | 0.16845    | 0.16845    |   0.0 |  0.24
Other   |            | 0.04618    |            |       |  0.06

Nlocal:           1024 ave        1024 max        1024 min
Histogram: 1 0 0 0 0 0 0 0 0 0
Nghost:           1484 ave        1484 max        1484 min
Histogram: 1 0 0 0 0 0 0 0 0 0
Neighs:              0 ave           0 max           0 min
Histogram: 1 0 0 0 0 0 0 0 0 0
FullNghs:        45078 ave       45078 max       45078 min
Histogram: 1 0 0 0 0 0 0 0 0 0

Total # of neighbors = 45078
Ave neighs/atom = 44.021484
Neighbor list builds = 301
Dangerous builds = 0

unfix           ensemble2

# ---------- Save Final State ----------
write_data      post_melt_cooldown_1.data
System init for write_data ...
write_restart   post_melt_cooldown_1.restart
System init for write_restart ...

Total wall time: 0:02:20
